[
  {
    "name": "methane",
    "formula": "CH4",
    "criticalTemperature": 190.56,
    "criticalPressure": 45.99,
    "accentricFactor": 0.012,
    "molarMass": 16.042504,
    "reference": {
      "citation": "Yaws, Carl L. Thermophysical Properties of Chemicals and Hydrocarbons. 2nd ed. Austin, TX: Gulf Publishing Company, 2014. Print.",
      "isbn": "978-0-323-28659-6"
    }
  },
  {
    "name": "ethane",
    "formula": "C2H6",
    "criticalTemperature": 305.32,
    "criticalPressure": 48.72,
    "accentricFactor": 0.1,
    "molarMass": 30.069126,
    "reference": {
      "citation": "Yaws, Carl L. Thermophysical Properties of Chemicals and Hydrocarbons. 2nd ed. Austin, TX: Gulf Publishing Company, 2014. Print.",
      "isbn": "978-0-323-28659-6"
    }
  },
  {
    "name": "propane",
    "formula": "C3H8",
    "criticalTemperature": 369.83,
    "criticalPressure": 42.48,
    "accentricFactor": 0.369,
    "molarMass": 44.095748,
    "reference": {
      "citation": "Yaws, Carl L. Thermophysical Properties of Chemicals and Hydrocarbons. 2nd ed. Austin, TX: Gulf Publishing Company, 2014. Print.",
      "isbn": "978-0-323-28659-6"
    }
  },
  {
    "name": "butane",
    "formula": "C4H",
    "criticalTemperature": 425.12,
    "criticalPressure": 37.96,
    "accentricFactor": 0.2,
    "molarMass": 49.050901,
    "reference": {
      "citation": "Yaws, Carl L. Thermophysical Properties of Chemicals and Hydrocarbons. 2nd ed. Austin, TX: Gulf Publishing Company, 2014. Print.",
      "isbn": "978-0-323-28659-6"
    }
  },
  {
    "name": "1-hexene",
    "formula": "C6H12",
    "criticalTemperature": 504.0,
    "criticalPressure": 32.1,
    "accentricFactor": 0.28600000000000003,
    "molarMass": 84.159732,
    "reference": {
      "citation": "Yaws, Carl L. Thermophysical Properties of Chemicals and Hydrocarbons. 2nd ed. Austin, TX: Gulf Publishing Company, 2014. Print.",
      "isbn": "978-0-323-28659-6"
    }
  },
  {
    "name": "hexane",
    "formula": "C6H14",
    "criticalTemperature": 507.6,
    "criticalPressure": 30.25,
    "accentricFactor": 0.301,
    "molarMass": 86.17561400000001,
    "reference": {
      "citation": "Yaws, Carl L. Thermophysical Properties of Chemicals and Hydrocarbons. 2nd ed. Austin, TX: Gulf Publishing Company, 2014. Print.",
      "isbn": "978-0-323-28659-6"
    }
  },
  {
    "name": "n-octane",
    "formula": "C8H18",
    "criticalTemperature": 569.4,
    "criticalPressure": 24.97,
    "accentricFactor": 0.39799999999999996,
    "molarMass": 114.228858,
    "reference": {
      "citation": "Yaws, Carl L. Thermophysical Properties of Chemicals and Hydrocarbons. 2nd ed. Austin, TX: Gulf Publishing Company, 2014. Print.",
      "isbn": "978-0-323-28659-6"
    }
  },
  {
    "name": "water",
    "formula": "H2O",
    "criticalTemperature": 647.13,
    "criticalPressure": 220.55,
    "accentricFactor": 0.3449,
    "molarMass": 18.015287,
    "reference": {
      "citation": "Yaws, Carl L. Thermophysical Properties of Chemicals and Hydrocarbons. 2nd ed. Austin, TX: Gulf Publishing Company, 2014. Print.",
      "isbn": "978-0-323-28659-6"
    }
  },
  {
    "name": "nitrogen",
    "formula": "N2",
    "criticalTemperature": 126.2,
    "criticalPressure": 34.6,
    "accentricFactor": 0.0377,
    "molarMass": 28.013406,
    "reference": {
      "citation": "Yaws, Carl L. Thermophysical Properties of Chemicals and Hydrocarbons. 2nd ed. Austin, TX: Gulf Publishing Company, 2014. Print.",
      "isbn": "978-0-323-28659-6"
    }
  },
  {
    "name": "helium",
    "formula": "He",
    "criticalTemperature": 5.2,
    "criticalPressure": 2.28,
    "accentricFactor": 0.0,
    "molarMass": 4.002602,
    "reference": {
      "citation": "Yaws, Carl L. Thermophysical Properties of Chemicals and Hydrocarbons. 2nd ed. Austin, TX: Gulf Publishing Company, 2014. Print.",
      "isbn": "978-0-323-28659-6"
    }
  },
  {
    "name": "neon",
    "formula": "Ne",
    "criticalTemperature": 44.4,
    "criticalPressure": 26.53,
    "accentricFactor": 0.0,
    "molarMass": 20.1797,
    "reference": {
      "citation": "Yaws, Carl L. Thermophysical Properties of Chemicals and Hydrocarbons. 2nd ed. Austin, TX: Gulf Publishing Company, 2014. Print.",
      "isbn": "978-0-323-28659-6"
    }
  },
  {
    "name": "argon",
    "formula": "Ar",
    "criticalTemperature": 150.86,
    "criticalPressure": 48.98,
    "accentricFactor": 0.0,
    "molarMass": 39.948,
    "reference": {
      "citation": "Yaws, Carl L. Thermophysical Properties of Chemicals and Hydrocarbons. 2nd ed. Austin, TX: Gulf Publishing Company, 2014. Print.",
      "isbn": "978-0-323-28659-6"
    }
  },
  {
    "name": "krypton",
    "formula": "Kr",
    "criticalTemperature": 209.35,
    "criticalPressure": 55.02,
    "accentricFactor": 0.0,
    "molarMass": 83.798,
    "reference": {
      "citation": "Yaws, Carl L. Thermophysical Properties of Chemicals and Hydrocarbons. 2nd ed. Austin, TX: Gulf Publishing Company, 2014. Print.",
      "isbn": "978-0-323-28659-6"
    }
  },
  {
    "name": "xenon",
    "formula": "Xe",
    "criticalTemperature": 289.74,
    "criticalPressure": 58.4,
    "accentricFactor": 0.0,
    "molarMass": 131.293,
    "reference": {
      "citation": "Yaws, Carl L. Thermophysical Properties of Chemicals and Hydrocarbons. 2nd ed. Austin, TX: Gulf Publishing Company, 2014. Print.",
      "isbn": "978-0-323-28659-6"
    }
  },
  {
    "name": "radon",
    "formula": "Rn",
    "criticalTemperature": 377.0,
    "criticalPressure": 62.8,
    "accentricFactor": 0.0,
    "molarMass": 222.0176,
    "reference": {
      "citation": "Yaws, Carl L. Thermophysical Properties of Chemicals and Hydrocarbons. 2nd ed. Austin, TX: Gulf Publishing Company, 2014. Print.",
      "isbn": "978-0-323-28659-6"
    }
  }
]
